LAMMPS (29 Oct 2020)
####################################################################################################
#
# TLSPH example:  elongate a 2d strip of a linear elastic material py pulling its ends apart
#
# unit system: GPa / mm / ms
#
####################################################################################################

####################################################################################################
# MATERIAL PARAMETERS
####################################################################################################
variable        E1 equal 1.0 # Young's modulus
variable        nu1 equal 0.3 # Poisson ratio
variable        E2 equal 2.0 # Young's modulus
variable        nu2 equal 0.3 # Poisson ratio

variable        rho equal 1 # initial mass density
variable        q1 equal 0.01 # standard artificial viscosity linear coefficient
variable        q2 equal 0.0  # standard artificial viscosity quadratic coefficient
variable        hg equal 50.0 # hourglass control coefficient
variable        cp equal 1.0 # heat capacity of material -- not used here
variable        FLAG_HYPER equal 1 # Hyperelastic flag

####################################################################################################
# INITIALIZE LAMMPS
####################################################################################################
dimension       2
units           si
boundary        sm sm p # simulation box boundaries
atom_style      smd
atom_modify     map array
comm_modify     vel yes
neigh_modify    every 10 delay 0 check yes # re-build neighbor list every 10 steps
newton          off

####################################################################################################
# CREATE INITIAL GEOMETRY
####################################################################################################
variable        l0 equal 0.5 # lattice spacing for creating particles
lattice         sq ${l0}
lattice         sq 0.5
Lattice spacing in x,y,z = 0.5 0.5 0.5

region          all block -10.0 10.01 -10 10.01 -0.01 0.01 units box
create_box      2 all
Created orthogonal box = (-10.000000 -10.000000 -0.01) to (10.010000 10.010000 0.01)
  1 by 1 by 1 MPI processor grid

## type 1
region 		down  block -10.0 10.01 -10 0.001 -0.01 0.01 units box
create_atoms    1 region down
Created 861 atoms
  create_atoms CPU = 0.003 seconds

## type 2
region 		up    block -10.0 10.01 0.01 10.01 -0.01 0.01 units box
create_atoms    2 region up
Created 820 atoms
  create_atoms CPU = 0.001 seconds

group 		up    region up
820 atoms in group up
group 		down  region down
861 atoms in group down
group           tlsph union up down
1681 atoms in group tlsph

####################################################################################################
# DISCRETIZATION PARAMETERS
####################################################################################################
variable        h equal 3.01*${l0} # SPH smoothing kernel radius
variable        h equal 3.01*0.5 
variable        vol_one equal ${l0}^2 # volume of one particle -- assuming unit thickness
variable        vol_one equal 0.5^2 
variable        skin equal ${h} # Verlet list range
variable        skin equal 1.505 
neighbor        ${skin} bin
neighbor        1.505 bin
set             group all volume ${vol_one}
set             group all volume 0.25
Setting atom values ...
  1681 settings made for volume
set             group all smd/mass/density ${rho}
set             group all smd/mass/density 1
Setting atom values ...
  1681 settings made for smd/mass/density
set             group all diameter ${h} # set SPH kernel radius
set             group all diameter 1.505 
Setting atom values ...
  1681 settings made for diameter

####################################################################################################
# DEFINE VELOCITY BOUNDARY CONDITIONS
####################################################################################################
variable        vel0 equal 0.001 # pull velocity
region          top block EDGE EDGE 9.7 EDGE EDGE EDGE units box
region          bot block EDGE EDGE EDGE -9.7 EDGE EDGE units box
group           top region top
41 atoms in group top
group           bot region bot
41 atoms in group bot
variable        vel_up equal ${vel0}  #*(1.0-exp(-0.01*time))
variable        vel_up equal 0.001  
variable        vel_down equal 0
fix             veltop_fix top smd/setvel 0 v_vel_up 0
fix             velbot_fix bot smd/setvel 0 v_vel_down 0

####################################################################################################
# INTERACTION PHYSICS / MATERIAL MODEL
####################################################################################################
pair_style      smd/tlsph
pair_coeff      1 1 *COMMON ${rho} ${E1} ${nu1} ${q1} ${q2} ${hg} ${cp}  ${FLAG_HYPER}                *STRENGTH_HGO                 *EOS_HGO                 *END
pair_coeff      1 1 *COMMON 1 ${E1} ${nu1} ${q1} ${q2} ${hg} ${cp}  ${FLAG_HYPER}                *STRENGTH_HGO                 *EOS_HGO                 *END
pair_coeff      1 1 *COMMON 1 1 ${nu1} ${q1} ${q2} ${hg} ${cp}  ${FLAG_HYPER}                *STRENGTH_HGO                 *EOS_HGO                 *END
pair_coeff      1 1 *COMMON 1 1 0.3 ${q1} ${q2} ${hg} ${cp}  ${FLAG_HYPER}                *STRENGTH_HGO                 *EOS_HGO                 *END
pair_coeff      1 1 *COMMON 1 1 0.3 0.01 ${q2} ${hg} ${cp}  ${FLAG_HYPER}                *STRENGTH_HGO                 *EOS_HGO                 *END
pair_coeff      1 1 *COMMON 1 1 0.3 0.01 0 ${hg} ${cp}  ${FLAG_HYPER}                *STRENGTH_HGO                 *EOS_HGO                 *END
pair_coeff      1 1 *COMMON 1 1 0.3 0.01 0 50 ${cp}  ${FLAG_HYPER}                *STRENGTH_HGO                 *EOS_HGO                 *END
pair_coeff      1 1 *COMMON 1 1 0.3 0.01 0 50 1  ${FLAG_HYPER}                *STRENGTH_HGO                 *EOS_HGO                 *END
pair_coeff      1 1 *COMMON 1 1 0.3 0.01 0 50 1  1                *STRENGTH_HGO                 *EOS_HGO                 *END

pair_coeff      2 2 *COMMON ${rho} ${E2} ${nu2} ${q1} ${q2} ${hg} ${cp} ${FLAG_HYPER}                *STRENGTH_HGO                 *EOS_HGO                 *END
pair_coeff      2 2 *COMMON 1 ${E2} ${nu2} ${q1} ${q2} ${hg} ${cp} ${FLAG_HYPER}                *STRENGTH_HGO                 *EOS_HGO                 *END
pair_coeff      2 2 *COMMON 1 2 ${nu2} ${q1} ${q2} ${hg} ${cp} ${FLAG_HYPER}                *STRENGTH_HGO                 *EOS_HGO                 *END
pair_coeff      2 2 *COMMON 1 2 0.3 ${q1} ${q2} ${hg} ${cp} ${FLAG_HYPER}                *STRENGTH_HGO                 *EOS_HGO                 *END
pair_coeff      2 2 *COMMON 1 2 0.3 0.01 ${q2} ${hg} ${cp} ${FLAG_HYPER}                *STRENGTH_HGO                 *EOS_HGO                 *END
pair_coeff      2 2 *COMMON 1 2 0.3 0.01 0 ${hg} ${cp} ${FLAG_HYPER}                *STRENGTH_HGO                 *EOS_HGO                 *END
pair_coeff      2 2 *COMMON 1 2 0.3 0.01 0 50 ${cp} ${FLAG_HYPER}                *STRENGTH_HGO                 *EOS_HGO                 *END
pair_coeff      2 2 *COMMON 1 2 0.3 0.01 0 50 1 ${FLAG_HYPER}                *STRENGTH_HGO                 *EOS_HGO                 *END
pair_coeff      2 2 *COMMON 1 2 0.3 0.01 0 50 1 1                *STRENGTH_HGO                 *EOS_HGO                 *END

pair_coeff      1 2 *CROSS

####################################################################################################
# TIME INTEGRATION
####################################################################################################
fix             dtfix tlsph smd/adjust_dt 0.1 # dynamically adjust time increment every step
fix             integration_fix tlsph smd/integrate_tlsph

####################################################################################################
# SPECIFY TRAJECTORY OUTPUT
# Cauchy Stress: s11, s22, s33, s12, s13, s23
# PK1: 	P11, P12, P13, P21, P22, P23, P31, P32, P33,
####################################################################################################
compute         S all smd/tlsph/stress # Cauchy stress tensor
compute         E all smd/tlsph/strain # Green-Lagrange strain tensor
compute         nn all smd/tlsph/num/neighs # number of neighbors for each particle
dump            dump_id all custom 1000 dump.LAMMPS id type x y z vx vy vz                 c_S[1] c_S[2] c_S[4] c_nn 		c_E[1] c_E[2] c_E[4]
dump_modify     dump_id first yes

####################################################################################################
# STATUS OUTPUT
####################################################################################################
variable        stress equal 0.5*(f_velbot_fix[2]-f_veltop_fix[2])/20 # stress = force / initial width
variable        length equal xcm(top,y)-xcm(bot,y)
variable        strain equal (v_length-${length})/${length} # engineering strain
variable        strain equal (v_length-20)/${length} 
variable        strain equal (v_length-20)/20 
fix             stress_curve all print 1000 "${length} ${strain} ${stress}" file stress_strain.dat screen no

thermo          1000
thermo_style    custom step dt f_dtfix v_strain

####################################################################################################
# RUN SIMULATION
####################################################################################################
run             5000
Neighbor list info ...
  update every 10 steps, delay 0 steps, check yes
  max neighbors/atom: 2000, page size: 100000
  master list distance cutoff = 3.01
  ghost atom cutoff = 3.01
  binsize = 1.505, bins = 14 14 1
  1 neighbor lists, perpetual/occasional/extra = 1 0 0
  (1) pair smd/tlsph, perpetual
      attributes: half, newton off, size
      pair build: half/size/bin/newtoff
      stencil: half/bin/2d/newtoff
      bin: standard

TLSPH neighbors:
  max # of neighbors for a single particle = 28
  average # of neighbors/particle in group tlsph = 26.2653
Per MPI rank memory allocation (min/avg/max) = 32.69 | 32.69 | 32.69 Mbytes
Step Dt f_dtfix v_strain 
       0        1e-16            0            0 
    1000  0.058455675    61.060632 0.0030530316 
    2000  0.066314616    123.82806 0.0061914031 
    3000  0.072171807    188.09782  0.009404891 
    4000  0.062925296    253.65013  0.012682507 
    5000  0.062954776    319.76739   0.01598837 
Loop time of 25.1954 on 1 procs for 5000 steps with 1681 atoms

98.4% CPU use with 1 MPI tasks x no OpenMP threads

MPI task timing breakdown:
Section |  min time  |  avg time  |  max time  |%varavg| %total
---------------------------------------------------------------
Pair    | 25.062     | 25.062     | 25.062     |   0.0 | 99.47
Neigh   | 0          | 0          | 0          |   0.0 |  0.00
Comm    | 0.00032449 | 0.00032449 | 0.00032449 |   0.0 |  0.00
Output  | 0.021751   | 0.021751   | 0.021751   |   0.0 |  0.09
Modify  | 0.10027    | 0.10027    | 0.10027    |   0.0 |  0.40
Other   |            | 0.01127    |            |       |  0.04

Nlocal:        1681.00 ave        1681 max        1681 min
Histogram: 1 0 0 0 0 0 0 0 0 0
Nghost:        0.00000 ave           0 max           0 min
Histogram: 1 0 0 0 0 0 0 0 0 0
Neighs:        82730.0 ave       82730 max       82730 min
Histogram: 1 0 0 0 0 0 0 0 0 0

Total # of neighbors = 82730
Ave neighs/atom = 49.214753
Neighbor list builds = 0
Dangerous builds = 0




Total wall time: 0:00:25
